# vtk DataFile Version 3.0
sduct   
ASCII
DATASET POLYDATA
POINTS    1735 float
    564.00      -156.00       594.00    
    0.0000      -156.00       594.00    
    564.00      -370.00       380.00    
    0.0000      -370.00       380.00    
    564.00      -370.00      -380.00    
    0.0000      -370.00      -380.00    
    564.00      -156.00      -594.00    
    0.0000      -156.00      -594.00    
    564.00       156.00      -594.00    
    0.0000       156.00      -594.00    
    564.00       370.00      -380.00    
    0.0000       370.00      -380.00    
    564.00       370.00       380.00    
    0.0000       370.00       380.00    
    564.00       156.00       594.00    
    0.0000       156.00       594.00    
    564.00       355.00       350.40    
    564.00       355.00      -365.00    
    1064.0       355.00      -365.00    
    1064.0       355.00       350.40    
    564.00       141.00      -579.00    
    1064.0       141.00      -579.00    
    564.00      -125.97      -579.00    
    1064.0      -125.97      -579.00    
    564.00      -295.00      -504.50    
    1064.0      -295.00      -504.50    
    564.00      -319.70      -522.60    
    1064.0      -319.70      -522.60    
    564.00      -104.61      -673.00    
    1064.0      -104.61      -673.00    
    564.00       126.00      -673.00    
    1064.0       126.00      -673.00    
    564.00       476.00      -323.00    
    1064.0       476.00      -323.00    
    564.00       476.00       400.00    
    1064.0       476.00       400.00    
    564.00       275.00       600.00    
    1064.0       275.00       600.00    
    564.00       275.00       524.30    
    1064.0       275.00       524.30    
   -4600.0      -156.00       594.00    
   -4600.0      -370.00       380.00    
   -4600.0      -370.00      -380.00    
   -4600.0      -156.00      -594.00    
   -4600.0       156.00      -594.00    
   -4600.0       370.00      -380.00    
   -4600.0       370.00       380.00    
   -4600.0       156.00       594.00    
   -4700.0      -600.00      -850.00    
   -4700.0       600.00      -850.00    
   -4700.0      -600.00       860.00    
   -4700.0       600.00       860.00    
   -3315.0      -156.00       594.00    
   -3315.0      -370.00       380.00    
   -3315.0      -370.00      -380.00    
   -3315.0      -156.00      -594.00    
   -3315.0       156.00      -594.00    
   -3315.0       370.00      -380.00    
   -3315.0       370.00       380.00    
   -3315.0       156.00       594.00    
   -3215.0      -156.00       594.00    
   -3215.0      -370.00       380.00    
   -3215.0      -370.00      -380.00    
   -3215.0      -156.00      -594.00    
   -3215.0       156.00      -594.00    
   -3215.0       370.00      -380.00    
   -3215.0       370.00       380.00    
   -3215.0       156.00       594.00    
    564.00      -600.00      -850.00    
    564.00       600.00      -850.00    
    564.00      -600.00       860.00    
    564.00       600.00       860.00    
    1064.0      -600.00      -850.00    
    1064.0       600.00      -850.00    
    1064.0      -600.00       860.00    
    1064.0       600.00       860.00    
   -4600.0      -126.00       730.00    
   -4600.0      -476.00       380.00    
   -4600.0      -476.00      -362.00    
   -4600.0      -126.00      -712.00    
   -4600.0       126.00      -712.00    
   -4600.0       476.00      -362.00    
   -4600.0       476.00       380.00    
   -4600.0       126.00       730.00    
   -4600.0      -156.00       594.00    
   -4600.0      -370.00       380.00    
   -4600.0      -370.00      -380.00    
   -4600.0      -156.00      -594.00    
   -4600.0       156.00      -594.00    
   -4600.0       370.00      -380.00    
   -4600.0       370.00       380.00    
   -4600.0       156.00       594.00    
   -4600.0      -600.00      -850.00    
   -4600.0       600.00      -850.00    
   -4600.0      -600.00       860.00    
   -4600.0       600.00       860.00    
    564.00      -156.00       594.00    
    564.00      -370.00       380.00    
    564.00      -370.00      -380.00    
    564.00       156.00       594.00    
   -3315.0      -156.00       594.00    
   -3315.0      -370.00       380.00    
   -3315.0      -370.00      -380.00    
   -3315.0      -156.00      -594.00    
   -3315.0       156.00      -594.00    
   -3315.0       370.00      -380.00    
   -3315.0       370.00       380.00    
   -3315.0       156.00       594.00    
   -3215.0      -156.00       594.00    
   -3215.0      -370.00       380.00    
   -3215.0      -370.00      -380.00    
   -3215.0      -156.00      -594.00    
   -3215.0       156.00      -594.00    
   -3215.0       370.00      -380.00    
   -3215.0       370.00       380.00    
   -3215.0       156.00       594.00    
    0.0000      -156.00       594.00    
    0.0000      -370.00       380.00    
    0.0000      -370.00      -380.00    
    0.0000      -156.00      -594.00    
    0.0000       156.00      -594.00    
    0.0000       370.00      -380.00    
    0.0000       370.00       380.00    
    0.0000       156.00       594.00    
    564.00       275.00       557.85    
    564.00      -317.18      -520.75    
    564.00      -166.50       593.74    
    564.00      -176.97       592.97    
    564.00      -187.40       591.68    
    564.00      -197.75       589.89    
    564.00      -207.99       587.59    
    564.00      -218.12       584.79    
    564.00      -228.09       581.49    
    564.00      -237.89       577.71    
    564.00      -247.50       573.45    
    564.00      -256.88       568.73    
    564.00      -266.02       563.55    
    564.00      -274.89       557.94    
    564.00      -283.48       551.89    
    564.00      -291.76       545.42    
    564.00      -299.71       538.56    
    564.00      -307.32       531.32    
    564.00      -314.56       523.71    
    564.00      -321.42       515.76    
    564.00      -327.89       507.48    
    564.00      -333.93       498.89    
    564.00      -339.55       490.02    
    564.00      -344.73       480.88    
    564.00      -349.45       471.50    
    564.00      -353.71       461.89    
    564.00      -357.49       452.09    
    564.00      -360.79       442.12    
    564.00      -363.59       432.00    
    564.00      -365.89       421.75    
    564.00      -367.68       411.40    
    564.00      -368.97       400.97    
    564.00      -369.74       390.50    
    0.0000      -166.50       593.74    
    0.0000      -176.97       592.97    
    0.0000      -187.40       591.68    
    0.0000      -197.75       589.89    
    0.0000      -207.99       587.59    
    0.0000      -218.12       584.79    
    0.0000      -228.09       581.49    
    0.0000      -237.89       577.71    
    0.0000      -247.50       573.45    
    0.0000      -256.88       568.73    
    0.0000      -266.02       563.55    
    0.0000      -274.89       557.94    
    0.0000      -283.48       551.89    
    0.0000      -291.76       545.42    
    0.0000      -299.71       538.56    
    0.0000      -307.32       531.32    
    0.0000      -314.56       523.71    
    0.0000      -321.42       515.76    
    0.0000      -327.89       507.48    
    0.0000      -333.93       498.89    
    0.0000      -339.55       490.02    
    0.0000      -344.73       480.88    
    0.0000      -349.45       471.50    
    0.0000      -353.71       461.89    
    0.0000      -357.49       452.09    
    0.0000      -360.79       442.12    
    0.0000      -363.59       432.00    
    0.0000      -365.89       421.75    
    0.0000      -367.68       411.40    
    0.0000      -368.97       400.97    
    0.0000      -369.74       390.50    
    564.00      -369.74      -390.50    
    564.00      -368.97      -400.97    
    564.00      -367.68      -411.40    
    564.00      -365.89      -421.75    
    564.00      -363.59      -431.99    
    564.00      -360.79      -442.12    
    564.00      -357.49      -452.09    
    564.00      -353.71      -461.89    
    564.00      -349.45      -471.50    
    564.00      -344.73      -480.88    
    564.00      -339.55      -490.02    
    564.00      -333.94      -498.89    
    564.00      -327.89      -507.48    
    564.00      -321.42      -515.76    
    564.00      -314.56      -523.71    
    564.00      -307.32      -531.32    
    564.00      -299.71      -538.56    
    564.00      -291.76      -545.42    
    564.00      -283.48      -551.89    
    564.00      -274.89      -557.93    
    564.00      -266.02      -563.55    
    564.00      -256.88      -568.73    
    564.00      -247.50      -573.45    
    564.00      -237.89      -577.71    
    564.00      -228.09      -581.49    
    564.00      -218.12      -584.79    
    564.00      -208.00      -587.59    
    564.00      -197.75      -589.89    
    564.00      -187.40      -591.68    
    564.00      -176.97      -592.97    
    564.00      -166.50      -593.74    
    0.0000      -369.74      -390.50    
    0.0000      -368.97      -400.97    
    0.0000      -367.68      -411.40    
    0.0000      -365.89      -421.75    
    0.0000      -363.59      -431.99    
    0.0000      -360.79      -442.12    
    0.0000      -357.49      -452.09    
    0.0000      -353.71      -461.89    
    0.0000      -349.45      -471.50    
    0.0000      -344.73      -480.88    
    0.0000      -339.55      -490.02    
    0.0000      -333.94      -498.89    
    0.0000      -327.89      -507.48    
    0.0000      -321.42      -515.76    
    0.0000      -314.56      -523.71    
    0.0000      -307.32      -531.32    
    0.0000      -299.71      -538.56    
    0.0000      -291.76      -545.42    
    0.0000      -283.48      -551.89    
    0.0000      -274.89      -557.93    
    0.0000      -266.02      -563.55    
    0.0000      -256.88      -568.73    
[...]
POINT_DATA    1735
SCALARS dummy_data float 1
LOOKUP_TABLE default
   0.56056E+06
   0.40151E+06
   0.57725E+06
   0.41820E+06
   0.57725E+06
   0.41820E+06
   0.56056E+06
   0.40151E+06
   0.56056E+06
   0.40151E+06
   0.57725E+06
   0.41820E+06
   0.57725E+06
   0.41820E+06
   0.56056E+06
   0.40151E+06
   0.53388E+06
   0.54432E+06
   0.95132E+06
   0.94088E+06
   0.53405E+06
   0.94105E+06
   0.52603E+06
   0.93303E+06
   0.58762E+06
   0.99462E+06
   0.63657E+06
   0.10436E+07
   0.63386E+06
   0.10409E+07
   0.64373E+06
   0.10507E+07
   0.71653E+06
   0.11235E+07
   0.77220E+06
   0.11792E+07
   0.67030E+06
   0.10773E+07
   0.58519E+06
   0.99219E+06
   0.10982E+08
   0.10998E+08
   0.10998E+08
   0.10982E+08
   0.10982E+08
   0.10998E+08
   0.10998E+08
   0.10982E+08
   0.12488E+08
   0.12488E+08
   0.12505E+08
   0.12505E+08
   0.58961E+07
   0.59128E+07
   0.59128E+07
   0.58961E+07
   0.58961E+07
   0.59128E+07
   0.59128E+07
   0.58961E+07
   0.55696E+07
   0.55863E+07
   0.55863E+07
   0.55696E+07
   0.55696E+07
   0.55863E+07
   0.55863E+07
   0.55696E+07
   0.16015E+07
   0.16015E+07
   0.16186E+07
   0.16186E+07
   0.20085E+07
   0.20085E+07
   0.20256E+07
   0.20256E+07
   0.11145E+08
   0.11178E+08
   0.11164E+08
   0.11119E+08
   0.11119E+08
   0.11164E+08
   0.11178E+08
   0.11145E+08
   0.10982E+08
   0.10998E+08
   0.10998E+08
   0.10982E+08
   0.10982E+08
   0.10998E+08
   0.10998E+08
   0.10982E+08
   0.12022E+08
   0.12022E+08
   0.12040E+08
   0.12040E+08
   0.56056E+06
   0.57725E+06
   0.57725E+06
   0.56056E+06
   0.58961E+07
   0.59128E+07
   0.59128E+07
   0.58961E+07
   0.58961E+07
   0.59128E+07
   0.59128E+07
   0.58961E+07
   0.55696E+07
   0.55863E+07
   0.55863E+07
   0.55696E+07
   0.55696E+07
   0.55863E+07
   0.55863E+07
   0.55696E+07
   0.40151E+06
   0.41820E+06
   0.41820E+06
   0.40151E+06
   0.40151E+06
   0.41820E+06
   0.41820E+06
   0.40151E+06
   0.62150E+06
   0.63144E+06
   0.56702E+06
   0.57330E+06
   0.57938E+06
   0.58522E+06
   0.59083E+06
   0.59618E+06
   0.60123E+06
   0.60598E+06
   0.61041E+06
   0.61448E+06
   0.61817E+06
   0.62147E+06
   0.62435E+06
   0.62678E+06
   0.62876E+06
   0.63024E+06
   0.63122E+06
   0.63168E+06
   0.63160E+06
   0.63097E+06
   0.62976E+06
   0.62797E+06
   0.62559E+06
   0.62262E+06
   0.61904E+06
   0.61485E+06
   0.61006E+06
   0.60467E+06
   0.59868E+06
   0.59210E+06
   0.58495E+06
   0.40797E+06
   0.41425E+06
   0.42033E+06
   0.42618E+06
   0.43178E+06
   0.43713E+06
   0.44218E+06
   0.44694E+06
   0.45136E+06
   0.45543E+06
   0.45912E+06
   0.46242E+06
   0.46530E+06
   0.46774E+06
   0.46971E+06
   0.47119E+06
   0.47218E+06
   0.47264E+06
   0.47255E+06
   0.47192E+06
   0.47071E+06
   0.46892E+06
   0.46654E+06
   0.46357E+06
   0.45999E+06
   0.45580E+06
   0.45101E+06
   0.44562E+06
   0.43963E+06
   0.43306E+06
   0.42591E+06
   0.58495E+06
   0.59210E+06
   0.59868E+06
   0.60467E+06
   0.61006E+06
   0.61485E+06
   0.61904E+06
   0.62262E+06
   0.62559E+06
   0.62797E+06
   0.62976E+06
   0.63097E+06
   0.63160E+06
   0.63168E+06
   0.63122E+06
   0.63024E+06
   0.62876E+06
   0.62678E+06
   0.62435E+06
   0.62147E+06
   0.61817E+06
   0.61448E+06
   0.61041E+06
   0.60598E+06
   0.60123E+06
   0.59617E+06
   0.59083E+06
   0.58522E+06
   0.57937E+06
   0.57330E+06
   0.56702E+06
   0.42591E+06
   0.43306E+06
   0.43963E+06
   0.44562E+06
   0.45101E+06
   0.45580E+06
   0.45999E+06
   0.46357E+06
   0.46654E+06
   0.46892E+06
   0.47071E+06
   0.47192E+06
   0.47255E+06
   0.47264E+06
   0.47218E+06
   0.47119E+06
   0.46971E+06
   0.46774E+06
   0.46530E+06
   0.46242E+06
   0.45912E+06
   0.45543E+06
   0.45136E+06
   0.44694E+06
   0.44218E+06
   0.43713E+06
   0.43178E+06
   0.42618E+06
   0.42033E+06
   0.41425E+06
   0.40797E+06
   0.56702E+06
   0.57330E+06
   0.57938E+06
   0.58522E+06
   0.59083E+06
   0.59618E+06
   0.60123E+06
   0.60598E+06
   0.61041E+06
   0.61448E+06
   0.61817E+06
   0.62147E+06
   0.62435E+06
   0.62678E+06
   0.62876E+06
   0.63024E+06
   0.63122E+06
   0.63168E+06
   0.63160E+06
   0.63097E+06
   0.62976E+06
   0.62797E+06
   0.62559E+06
   0.62262E+06
   0.61904E+06
   0.61485E+06
   0.61006E+06
   0.60467E+06
   0.59868E+06
   0.59210E+06
   0.58495E+06
   0.40797E+06
   0.41425E+06
   0.42033E+06
   0.42618E+06
   0.43178E+06
   0.43713E+06
   0.44218E+06
   0.44694E+06
   0.45136E+06
   0.45543E+06
   0.45912E+06
   0.46242E+06
   0.46530E+06
   0.46774E+06
   0.46971E+06
   0.47119E+06
   0.47218E+06
   0.47264E+06
   0.47255E+06
   0.47192E+06
   0.47071E+06
   0.46892E+06
   0.46654E+06
   0.46357E+06
   0.45999E+06
   0.45580E+06
   0.45101E+06
   0.44562E+06
   0.43963E+06
   0.43306E+06
   0.42591E+06
   0.58495E+06
   0.59210E+06
   0.59868E+06
   0.60467E+06
   0.61006E+06
   0.61485E+06
   0.61904E+06
   0.62262E+06
   0.62559E+06
   0.62797E+06
   0.62976E+06
   0.63097E+06
   0.63160E+06
   0.63168E+06
   0.63122E+06
   0.63024E+06
   0.62876E+06
   0.62678E+06
   0.62435E+06
   0.62147E+06
   0.61817E+06
   0.61448E+06
   0.61041E+06
   0.60598E+06
   0.60123E+06
   0.59617E+06
   0.59083E+06
   0.58522E+06
   0.57937E+06
   0.57330E+06
   0.56702E+06
   0.42591E+06
   0.43306E+06
   0.43963E+06
   0.44562E+06
   0.45101E+06
   0.45580E+06
   0.45999E+06
   0.46357E+06
   0.46654E+06
   0.46892E+06
   0.47071E+06
   0.47192E+06
   0.47255E+06
   0.47264E+06
   0.47218E+06
   0.47119E+06
   0.46971E+06
   0.46774E+06
   0.46530E+06
   0.46242E+06
   0.45912E+06
   0.45543E+06
   0.45136E+06
   0.44694E+06
   0.44218E+06
   0.43713E+06
   0.43178E+06
   0.42618E+06
   0.42033E+06
   0.41425E+06
   0.40797E+06
   0.55173E+06
   0.55861E+06
   0.56495E+06
   0.57074E+06
   0.57596E+06
   0.58061E+06
   0.58470E+06
   0.58821E+06
   0.59116E+06
   0.59354E+06
   0.59536E+06
   0.59664E+06
   0.59738E+06
   0.59760E+06
   0.59731E+06
   0.59654E+06
   0.59529E+06
   0.59359E+06
   0.59146E+06
   0.58891E+06
   0.58598E+06
   0.58268E+06
   0.57903E+06
   0.57505E+06
   0.57078E+06
   0.56622E+06
   0.56140E+06
   0.55634E+06
   0.55105E+06
   0.54557E+06
   0.53989E+06
   0.95873E+06
   0.96561E+06
   0.97195E+06
   0.97774E+06
   0.98296E+06
   0.98761E+06
   0.99170E+06
   0.99521E+06
   0.99816E+06
   0.10005E+07
   0.10024E+07
   0.10036E+07
   0.10044E+07
   0.10046E+07
   0.10043E+07
   0.10035E+07
   0.10023E+07
   0.10006E+07
   0.99846E+06
   0.99591E+06
   0.99298E+06
   0.98968E+06
   0.98603E+06
   0.98205E+06
   0.97778E+06
   0.97322E+06
   0.96840E+06
   0.96334E+06
   0.95805E+06
   0.95257E+06
   0.94689E+06
   0.53194E+06
   0.53768E+06
   0.54324E+06
   0.54859E+06
   0.55372E+06
   0.55859E+06
   0.56319E+06
   0.56748E+06
   0.57144E+06
   0.57505E+06
   0.57827E+06
   0.58108E+06
   0.58344E+06
   0.58534E+06
   0.58674E+06
   0.93894E+06
   0.94468E+06
   0.95024E+06
   0.95559E+06
   0.96072E+06
   0.96559E+06
   0.97019E+06
   0.97448E+06
   0.97844E+06
   0.98205E+06
   0.98527E+06
   0.98808E+06
   0.99044E+06
   0.99234E+06
   0.99374E+06
   0.64114E+06
   0.64536E+06
   0.64922E+06
   0.65274E+06
   0.65591E+06
   0.65874E+06
   0.66123E+06
   0.66338E+06
   0.66521E+06
   0.66671E+06
   0.66789E+06
   0.66876E+06
   0.66933E+06
   0.66960E+06
   0.66959E+06
   0.66930E+06
   0.66873E+06
   0.66791E+06
   0.66683E+06
   0.66552E+06
   0.66396E+06
   0.66218E+06
   0.66019E+06
   0.65799E+06
   0.65559E+06
   0.65300E+06
   0.65022E+06
   0.64728E+06
   0.64416E+06
   0.64088E+06
   0.63745E+06
   0.10481E+07
   0.10524E+07
   0.10562E+07
   0.10597E+07
   0.10629E+07
   0.10657E+07
   0.10682E+07
   0.10704E+07
   0.10722E+07
   0.10737E+07
   0.10749E+07
   0.10758E+07
   0.10763E+07
   0.10766E+07
   0.10766E+07
   0.10763E+07
   0.10757E+07
   0.10749E+07
   0.10738E+07
   0.10725E+07
   0.10710E+07
   0.10692E+07
   0.10672E+07
   0.10650E+07
   0.10626E+07
   0.10600E+07
   0.10572E+07
   0.10543E+07
   0.10512E+07
   0.10479E+07
   0.10444E+07
   0.65241E+06
   0.66111E+06
   0.66980E+06
   0.67846E+06
   0.68705E+06
   0.69552E+06
   0.70384E+06
   0.71196E+06
   0.71983E+06
   0.72741E+06
   0.73463E+06
   0.74144E+06
   0.74779E+06
   0.75361E+06
   0.75887E+06
   0.76349E+06
   0.76743E+06
   0.77062E+06
   0.77303E+06
   0.77460E+06
   0.77529E+06
   0.77506E+06
   0.77387E+06
   0.77169E+06
   0.76848E+06
   0.76424E+06
   0.75895E+06
   0.75259E+06
   0.74516E+06
   0.73666E+06
   0.72711E+06
   0.10594E+07
   0.10681E+07
   0.10768E+07
   0.10855E+07
   0.10940E+07
   0.11025E+07
   0.11108E+07
   0.11190E+07
   0.11268E+07
   0.11344E+07
   0.11416E+07
   0.11484E+07
   0.11548E+07
   0.11606E+07
   0.11659E+07
   0.11705E+07
   0.11744E+07
   0.11776E+07
   0.11800E+07
   0.11816E+07
   0.11823E+07
   0.11821E+07
   0.11809E+07
   0.11787E+07
   0.11755E+07
   0.11712E+07
   0.11659E+07
   0.11596E+07
   0.11522E+07
   0.11437E+07
   0.11341E+07
   0.77971E+06
   0.78648E+06
   0.79248E+06
   0.79771E+06
   0.80216E+06
   0.80583E+06
   0.80871E+06
   0.81081E+06
   0.81213E+06
   0.81267E+06
   0.81245E+06
   0.81149E+06
   0.80978E+06
   0.80737E+06
   0.80425E+06
   0.80046E+06
   0.79602E+06
   0.79095E+06
   0.78528E+06
   0.77904E+06
   0.77226E+06
   0.76496E+06
   0.75717E+06
   0.74894E+06
   0.74027E+06
   0.73122E+06
   0.72180E+06
   0.71205E+06
   0.70199E+06
   0.69166E+06
   0.68109E+06
   0.11867E+07
   0.11935E+07
   0.11995E+07
   0.12047E+07
   0.12092E+07
   0.12128E+07
   0.12157E+07
   0.12178E+07
   0.12191E+07
   0.12197E+07
   0.12195E+07
   0.12185E+07
   0.12168E+07
   0.12144E+07
   0.12113E+07
   0.12075E+07
   0.12030E+07
   0.11980E+07
   0.11923E+07
   0.11860E+07
   0.11793E+07
   0.11720E+07
   0.11642E+07
   0.11559E+07
   0.11473E+07
   0.11382E+07
   0.11288E+07
   0.11190E+07
   0.11090E+07
   0.10987E+07
   0.10881E+07
   0.58681E+06
   0.58788E+06
   0.58836E+06
   0.58824E+06
   0.58748E+06
   0.58607E+06
   0.58399E+06
   0.58123E+06
   0.57777E+06
   0.57360E+06
   0.56872E+06
   0.56314E+06
   0.55685E+06
   0.54987E+06
   0.54221E+06
   0.99381E+06
   0.99488E+06
   0.99536E+06
   0.99524E+06
   0.99448E+06
   0.99307E+06
   0.99099E+06
   0.98823E+06
   0.98477E+06
   0.98060E+06
   0.97572E+06
   0.97014E+06
   0.96385E+06
   0.95687E+06
   0.94921E+06
   0.10988E+08
   0.10994E+08
   0.11000E+08
   0.11006E+08
   0.11012E+08
   0.11017E+08
   0.11022E+08
   0.11027E+08
   0.11031E+08
   0.11035E+08
   0.11039E+08
   0.11042E+08
   0.11045E+08
   0.11048E+08
   0.11050E+08
   0.11051E+08
   0.11052E+08
   0.11053E+08
   0.11053E+08
   0.11052E+08
   0.11051E+08
   0.11049E+08
   0.11047E+08
   0.11044E+08
   0.11040E+08
   0.11036E+08
   0.11031E+08
   0.11026E+08
   0.11020E+08
   0.11013E+08
   0.11006E+08
   0.11006E+08
   0.11013E+08
   0.11020E+08
   0.11026E+08
   0.11031E+08
   0.11036E+08
   0.11040E+08
   0.11044E+08
   0.11047E+08
   0.11049E+08
   0.11051E+08
   0.11052E+08
   0.11053E+08
   0.11053E+08
   0.11052E+08
   0.11051E+08
   0.11050E+08
   0.11048E+08
   0.11045E+08
   0.11042E+08
   0.11039E+08
   0.11035E+08
   0.11031E+08
   0.11027E+08
   0.11022E+08
   0.11017E+08
   0.11012E+08
   0.11006E+08
   0.11000E+08
   0.10994E+08
   0.10988E+08
   0.10988E+08
   0.10994E+08
   0.11000E+08
   0.11006E+08
   0.11012E+08
   0.11017E+08
   0.11022E+08
   0.11027E+08
   0.11031E+08
   0.11035E+08
   0.11039E+08
   0.11042E+08
   0.11045E+08
   0.11048E+08
   0.11050E+08
   0.11051E+08
   0.11052E+08
   0.11053E+08
   0.11053E+08
   0.11052E+08
   0.11051E+08
   0.11049E+08
   0.11047E+08
   0.11044E+08
   0.11040E+08
   0.11036E+08
   0.11031E+08
   0.11026E+08
   0.11020E+08
   0.11013E+08
   0.11006E+08
   0.11006E+08
   0.11013E+08
   0.11020E+08
   0.11026E+08
   0.11031E+08
   0.11036E+08
   0.11040E+08
   0.11044E+08
   0.11047E+08
   0.11049E+08
   0.11051E+08
   0.11052E+08
   0.11053E+08
   0.11053E+08
   0.11052E+08
   0.11051E+08
   0.11050E+08
   0.11048E+08
   0.11045E+08
   0.11042E+08
   0.11039E+08
   0.11035E+08
   0.11031E+08
   0.11027E+08
   0.11022E+08
   0.11017E+08
   0.11012E+08
   0.11006E+08
   0.11000E+08
   0.10994E+08
   0.10988E+08
   0.59026E+07
   0.59089E+07
   0.59149E+07
   0.59208E+07
   0.59264E+07
   0.59317E+07
   0.59368E+07
   0.59415E+07
   0.59460E+07
   0.59500E+07
   0.59537E+07
   0.59570E+07
   0.59599E+07
   0.59623E+07
   0.59643E+07
   0.59658E+07
   0.59668E+07
   0.59672E+07
   0.59672E+07
   0.59665E+07
   0.59653E+07
   0.59635E+07
   0.59612E+07
   0.59582E+07
   0.59546E+07
   0.59504E+07
   0.59456E+07
   0.59402E+07
   0.59342E+07
   0.59277E+07
   0.59205E+07
   0.59205E+07
   0.59277E+07
   0.59342E+07
   0.59402E+07
   0.59456E+07
   0.59504E+07
   0.59546E+07
   0.59582E+07
   0.59612E+07
   0.59635E+07
   0.59653E+07
   0.59665E+07
   0.59672E+07
   0.59672E+07
   0.59668E+07
   0.59658E+07
   0.59643E+07
   0.59623E+07
   0.59599E+07
   0.59570E+07
   0.59537E+07
   0.59500E+07
   0.59460E+07
   0.59415E+07
   0.59368E+07
   0.59317E+07
   0.59264E+07
   0.59208E+07
   0.59149E+07
   0.59089E+07
   0.59026E+07
   0.59026E+07
   0.59089E+07
   0.59149E+07
   0.59208E+07
   0.59264E+07
   0.59317E+07
   0.59368E+07
   0.59415E+07
   0.59460E+07
   0.59500E+07
   0.59537E+07
   0.59570E+07
   0.59599E+07
   0.59623E+07
   0.59643E+07
   0.59658E+07
   0.59668E+07
   0.59672E+07
   0.59672E+07
   0.59665E+07
   0.59653E+07
   0.59635E+07
   0.59612E+07
   0.59582E+07
   0.59546E+07
   0.59504E+07
   0.59456E+07
   0.59402E+07
   0.59342E+07
   0.59277E+07
   0.59205E+07
   0.59205E+07
   0.59277E+07
   0.59342E+07
   0.59402E+07
   0.59456E+07
   0.59504E+07
   0.59546E+07
   0.59582E+07
   0.59612E+07
   0.59635E+07
   0.59653E+07
   0.59665E+07
   0.59672E+07
   0.59672E+07
   0.59668E+07
   0.59658E+07
   0.59643E+07
   0.59623E+07
   0.59599E+07
   0.59570E+07
   0.59537E+07
   0.59500E+07
   0.59460E+07
   0.59415E+07
   0.59368E+07
   0.59317E+07
   0.59264E+07
   0.59208E+07
   0.59149E+07
   0.59089E+07
   0.59026E+07
   0.55761E+07
   0.55824E+07
   0.55884E+07
   0.55943E+07
   0.55999E+07
   0.56052E+07
   0.56103E+07
   0.56150E+07
   0.56195E+07
   0.56235E+07
   0.56272E+07
   0.56305E+07
   0.56334E+07
   0.56358E+07
   0.56378E+07
   0.56393E+07
   0.56403E+07
   0.56407E+07
   0.56407E+07
   0.56400E+07
   0.56388E+07
   0.56370E+07
   0.56347E+07
   0.56317E+07
   0.56281E+07
   0.56239E+07
   0.56191E+07
   0.56137E+07
   0.56077E+07
   0.56012E+07
   0.55940E+07
   0.55940E+07
   0.56012E+07
   0.56077E+07
   0.56137E+07
   0.56191E+07
   0.56239E+07
   0.56281E+07
   0.56317E+07
   0.56347E+07
   0.56370E+07
   0.56388E+07
   0.56400E+07
   0.56407E+07
   0.56407E+07
   0.56403E+07
   0.56393E+07
   0.56378E+07
   0.56358E+07
   0.56334E+07
   0.56305E+07
   0.56272E+07
   0.56235E+07
   0.56195E+07
   0.56150E+07
   0.56103E+07
   0.56052E+07
   0.55999E+07
   0.55943E+07
   0.55884E+07
   0.55824E+07
   0.55761E+07
   0.55761E+07
   0.55824E+07
   0.55884E+07
   0.55943E+07
   0.55999E+07
   0.56052E+07
   0.56103E+07
   0.56150E+07
   0.56195E+07
   0.56235E+07
   0.56272E+07
   0.56305E+07
   0.56334E+07
   0.56358E+07
   0.56378E+07
   0.56393E+07
   0.56403E+07
   0.56407E+07
   0.56407E+07
   0.56400E+07
   0.56388E+07
   0.56370E+07
   0.56347E+07
   0.56317E+07
   0.56281E+07
   0.56239E+07
   0.56191E+07
   0.56137E+07
   0.56077E+07
   0.56012E+07
   0.55940E+07
   0.55940E+07
   0.56012E+07
   0.56077E+07
   0.56137E+07
   0.56191E+07
   0.56239E+07
   0.56281E+07
   0.56317E+07
   0.56347E+07
   0.56370E+07
   0.56388E+07
   0.56400E+07
   0.56407E+07
   0.56407E+07
   0.56403E+07
   0.56393E+07
   0.56378E+07
   0.56358E+07
   0.56334E+07
   0.56305E+07
   0.56272E+07
   0.56235E+07
   0.56195E+07
   0.56150E+07
   0.56103E+07
   0.56052E+07
   0.55999E+07
   0.55943E+07
   0.55884E+07
   0.55824E+07
   0.55761E+07
   0.11153E+08
   0.11162E+08
   0.11170E+08
   0.11179E+08
   0.11187E+08
   0.11195E+08
   0.11202E+08
   0.11210E+08
   0.11217E+08
   0.11224E+08
   0.11230E+08
   0.11236E+08
   0.11241E+08
   0.11245E+08
   0.11249E+08
   0.11253E+08
   0.11255E+08
   0.11257E+08
   0.11258E+08
   0.11258E+08
   0.11257E+08
   0.11255E+08
   0.11252E+08
   0.11248E+08
   0.11243E+08
   0.11237E+08
   0.11230E+08
   0.11221E+08
   0.11212E+08
   0.11202E+08
   0.11190E+08
   0.11176E+08
   0.11187E+08
   0.11197E+08
   0.11206E+08
   0.11213E+08
   0.11220E+08
   0.11225E+08
   0.11230E+08
   0.11233E+08
   0.11236E+08
   0.11237E+08
   0.11237E+08
   0.11237E+08
   0.11236E+08
   0.11233E+08
   0.11230E+08
   0.11227E+08
   0.11222E+08
   0.11217E+08
   0.11212E+08
   0.11206E+08
   0.11199E+08
   0.11192E+08
   0.11185E+08
   0.11177E+08
   0.11169E+08
   0.11161E+08
   0.11153E+08
   0.11144E+08
   0.11136E+08
   0.11127E+08
   0.11127E+08
   0.11136E+08
   0.11144E+08
   0.11153E+08
   0.11161E+08
   0.11169E+08
   0.11177E+08
   0.11185E+08
   0.11192E+08
   0.11199E+08
   0.11206E+08
   0.11212E+08
   0.11217E+08
   0.11222E+08
   0.11227E+08
   0.11230E+08
   0.11233E+08
   0.11236E+08
   0.11237E+08
   0.11237E+08
   0.11237E+08
   0.11236E+08
   0.11233E+08
   0.11230E+08
   0.11225E+08
   0.11220E+08
   0.11213E+08
   0.11206E+08
   0.11197E+08
   0.11187E+08
   0.11176E+08
   0.11190E+08
   0.11202E+08
   0.11212E+08
   0.11221E+08
   0.11230E+08
   0.11237E+08
   0.11243E+08
   0.11248E+08
   0.11252E+08
   0.11255E+08
   0.11257E+08
   0.11258E+08
   0.11258E+08
   0.11257E+08
   0.11255E+08
   0.11253E+08
   0.11249E+08
   0.11245E+08
   0.11241E+08
   0.11236E+08
   0.11230E+08
   0.11224E+08
   0.11217E+08
   0.11210E+08
   0.11202E+08
   0.11195E+08
   0.11187E+08
   0.11179E+08
   0.11170E+08
   0.11162E+08
   0.11153E+08
   0.10988E+08
   0.10994E+08
   0.11000E+08
   0.11006E+08
   0.11012E+08
   0.11017E+08
   0.11022E+08
   0.11027E+08
   0.11031E+08
   0.11035E+08
   0.11039E+08
   0.11042E+08
   0.11045E+08
   0.11048E+08
   0.11050E+08
   0.11051E+08
   0.11052E+08
   0.11053E+08
   0.11053E+08
   0.11052E+08
   0.11051E+08
   0.11049E+08
   0.11047E+08
   0.11044E+08
   0.11040E+08
   0.11036E+08
   0.11031E+08
   0.11026E+08
   0.11020E+08
   0.11013E+08
   0.11006E+08
   0.11006E+08
   0.11013E+08
   0.11020E+08
   0.11026E+08
   0.11031E+08
   0.11036E+08
   0.11040E+08
   0.11044E+08
   0.11047E+08
   0.11049E+08
   0.11051E+08
   0.11052E+08
   0.11053E+08
   0.11053E+08
   0.11052E+08
   0.11051E+08
   0.11050E+08
   0.11048E+08
   0.11045E+08
   0.11042E+08
   0.11039E+08
   0.11035E+08
   0.11031E+08
   0.11027E+08
   0.11022E+08
   0.11017E+08
   0.11012E+08
   0.11006E+08
   0.11000E+08
   0.10994E+08
   0.10988E+08
   0.10988E+08
   0.10994E+08
   0.11000E+08
   0.11006E+08
   0.11012E+08
   0.11017E+08
   0.11022E+08
   0.11027E+08
   0.11031E+08
   0.11035E+08
   0.11039E+08
   0.11042E+08
   0.11045E+08
   0.11048E+08
   0.11050E+08
   0.11051E+08
   0.11052E+08
   0.11053E+08
   0.11053E+08
   0.11052E+08
   0.11051E+08
   0.11049E+08
   0.11047E+08
   0.11044E+08
   0.11040E+08
   0.11036E+08
   0.11031E+08
   0.11026E+08
   0.11020E+08
   0.11013E+08
   0.11006E+08
   0.11006E+08
   0.11013E+08
   0.11020E+08
   0.11026E+08
   0.11031E+08
   0.11036E+08
   0.11040E+08
   0.11044E+08
   0.11047E+08
   0.11049E+08
   0.11051E+08
   0.11052E+08
   0.11053E+08
   0.11053E+08
   0.11052E+08
   0.11051E+08
   0.11050E+08
   0.11048E+08
   0.11045E+08
   0.11042E+08
   0.11039E+08
   0.11035E+08
   0.11031E+08
   0.11027E+08
   0.11022E+08
   0.11017E+08
   0.11012E+08
   0.11006E+08
   0.11000E+08
   0.10994E+08
   0.10988E+08
   0.56702E+06
   0.57330E+06
   0.57938E+06
   0.58522E+06
   0.59083E+06
   0.59618E+06
   0.60123E+06
   0.60598E+06
   0.61041E+06
   0.61448E+06
   0.61817E+06
   0.62147E+06
   0.62435E+06
   0.62678E+06
   0.62876E+06
   0.63024E+06
   0.63122E+06
   0.63168E+06
   0.63160E+06
   0.63097E+06
   0.62976E+06
   0.62797E+06
   0.62559E+06
   0.62262E+06
   0.61904E+06
   0.61485E+06