# vtk DataFile Version 2.0
intersection points in quantised space
ASCII
           
DATASET UNSTRUCTURED_GRID
POINTS      200 float
  852.28210       197.54794       1056.1498    
  188.28038       197.54794       1155.5028    
  877.25452       769.93555       1657.3934    
  1809.2461       640.14856       308.08408    
  3886.6428       197.91066       548.59424    
  698.40686       826.45203       1369.7437    
  2249.9939       689.67242       316.09818    
  1796.9089       826.45203       1047.1248    
  2348.4109       225.72737       427.24362    
  2110.7236       826.45203       1141.9930    
  1585.1127       759.13660       1670.8044    
  369.55698       826.45203       1150.3856    
  1389.5455       197.54794       1003.1765    
  981.70258       197.54794       666.43518    
  1297.0847       823.69147       1516.1379    
  456.97940       826.45203       663.60785    
  2298.7942       742.43115       1687.6958    
  394.99762       826.45203       602.39636    
  1351.2634       553.58978       308.08408    
  471.21704       317.04321       323.63794    
  416.37714       197.54794       1078.1627    
  1350.9364       789.72998       1626.2374    
  285.35727       197.54794       1176.8850    
  613.03778       220.30482       1595.9423    
  5762.1636       725.09534       1701.4551    
  1063.4829       826.45203       1186.5970    
  939.64673       826.45203       827.17096    
  699.85352       197.54794       1212.8101    
  8189.0415       652.69843       963.94879    
  986.80566       826.45203       741.05511    
  597.98975       635.82520       1727.9639    
  2135.7415       713.18054       1709.0342    
  2178.7952       478.83380       308.08414    
  768.12671       355.16803       310.43375    
  354.01709       197.54794       937.07288    
  761.52478       393.48032       308.08408    
  2218.6440       795.34753       420.85870    
  662.02051       197.54794       1006.0148    
  716.77051       826.45203       1174.1261    
  2184.0256       752.17773       357.67688    
  202.67735       239.77957       1635.9927    
  653.85608       197.54794       906.55994    
  150.01973       197.54793       1114.7430    
  1034.8057       736.85400       1692.5496    
  2534.7185       304.47363       330.88934    
  2052.3760       198.75804       534.98474    
  621.11829       826.45203       934.28369    
  1011.8096       826.45203       946.01074    
  758.77576       826.45203       1067.0587    
  1338.9086       610.68176       308.08408    
  1125.5590       632.98962       1727.9639    
  737.08453       516.64819       1727.9639    
  2413.1392       197.54794       1167.7909    
  5647.1748       602.10779       1727.9639    
  627.40991       826.45203       1081.1782    
  572.10339       197.54794       985.56702    
  4106.4019       276.81851       1683.3198    
  3823.5081       197.54794       609.25397    
  232.84865       826.45203       1123.8151    
  2994.2053       320.49023       1714.1000    
  583.34155       826.45203       790.33313    
  8189.0415       433.65546       498.30792    
  1758.1233       228.84496       1615.5740    
  1789.2765       567.75189       308.08408    
  8189.0410       372.50168       1478.7933    
  3211.6760       197.54794       845.60815    
  3409.5950       812.31683       1570.9912    
  1350.7548       581.78632       308.08411    
  3043.5991       348.44910       311.89932    
  782.01569       197.54794       1279.8673    
  499.73392       197.54794       845.57501    
  2141.1953       826.45203       803.47919    
  1508.4410       417.05597       308.08408    
  1651.7101       197.54794       886.36993    
  870.86041       826.45203       1316.3938    
  193.82010       197.54794       1015.6346    
  185.48854       826.45203       1380.0033    
  1294.3179       197.54794       985.51697    
  2555.2817       826.26941       553.48669    
  503.63336       197.54794       890.81665    
  1840.2540       712.84253       1709.2175    
  287.77332       826.45203       1389.1996    
  559.38635       823.53406       1517.4171    
  2572.4932       225.56252       1608.4296    
  864.01294       474.24091       1727.9639    
  3350.4084       197.54794       1320.6161    
  479.77850       826.45203       1109.3680    
  1654.1466       197.54794       1112.6716    
  584.45154       197.54794       954.50122    
  2058.8489       826.45203       1376.9772    
  618.88544       257.62183       1662.1111    
  8189.0410       429.82379       1603.3589    
  2870.5498       577.97479       308.08414    
  240.73906       197.54794       1317.8574    
  1194.3386       197.54794       564.79956    
  1243.1453       813.33484       468.63113    
  8189.0410       359.96570       1645.0649    
  209.33780       750.73511       356.24811    
  355.10916       657.64697       308.82336    
  911.30133       826.45203       745.51428    
  1421.5201       463.06693       1727.9639    
  2830.7478       755.06714       1675.2765    
  2258.8435       252.33051       1655.0736    
  2245.0664       197.54794       1166.9429    
  1127.1591       768.04138       376.12033    
  1737.7953       826.45203       706.12976    
  782.87054       199.26952       1506.8787    
  510.14972       363.76010       309.09164    
  2932.6443       225.42128       1608.1161    
  713.48962       197.54794       908.62219    
  8189.0415       426.77109       1232.3060    
  1930.1483       218.31566       1590.7844    
  2461.5374       255.64648       1659.5101    
  621.85968       197.54794       866.73267    
  977.83868       197.54794       1188.3623    
  906.37488       421.06192       308.08411    
  518.00146       197.54794       1320.5620    
  892.25952       460.25781       1727.9639    
  652.87555       826.45203       624.23413    
  1888.2070       826.45203       890.51379    
  147.18707       819.32947       493.19049    
  1954.6685       508.63849       308.08411    
  1374.4288       197.54794       849.39984    
  833.23907       826.45203       805.85468    
  633.36462       197.54794       946.72290    
  1941.0107       197.54794       916.19250    
  1682.9437       807.96106       1584.4214    
  3251.6082       197.54794       1413.9138    
  1819.3414       467.27356       308.08411    
  1195.0842       826.45203       1327.2400    
  1550.1869       612.63623       308.08408    
  2090.5947       409.97250       308.08408    
  1110.7400       423.54224       308.08411    
  1580.9972       826.45203       729.46118    
  661.53064       616.23047       1727.9639    
  2762.1367       767.29602       1660.9250    
  33.608398       2.1287537       1030.1189    
  1658.8154       197.54794       1065.3176    
  1281.3230       826.36072       558.66882    
  4213.5566       208.73779       475.65839    
  956.33124       197.54794       1114.7384    
  1155.0503       826.45203       711.81342    
  955.66461       724.36865       1701.9692    
  527.86823       826.45203       963.66370    
  1184.7592       197.54794       839.92383    
  229.30154       826.45203       1252.3893    
  744.15344       197.54794       1236.0725    
  1093.3792       616.70325       1727.9639    
  3928.2754       332.65433       316.74631    
  1216.7963       309.52405       327.74084    
  1900.2366       826.45203       1366.6166    
  46.690918       2.1287537       867.93518    
  5985.0903       199.94852       1513.2104    
  260.30148       197.54794       1320.4858    
  5081.5742       435.97733       308.08414    
  1034.7412       826.45203       766.52039    
  948.65314       197.54794       1372.5347    
  1901.1696       826.45203       1014.7139    
  561.75275       197.54794       884.99182    
  1819.5824       651.02820       308.30875    
  1149.4166       197.54794       978.65845    
  555.22772       826.45203       1292.9514    
  1401.5291       708.85388       1711.3812    
  300.01559       400.15564       308.08408    
  1381.0077       751.30096       1679.2368    
  488.83276       826.45203       1078.1633    
  1795.7769       204.95758       1544.3164    
  5871.1104       264.28650       365.87729    
  7886.2168       811.80817       1474.1979    
  1428.5795       197.54794       1065.7070    
  592.64008       826.45203       1266.0670    
  869.04608       197.54794       918.94910    
  854.86615       197.54794       792.75922    
  1327.8953       197.54794       893.48773    
  1333.6161       812.53680       1570.2931    
  1610.5099       197.54794       781.27795    
  1269.9320       634.68677       308.08408    
  1535.6097       207.69095       1556.2778    
  2973.9062       496.76099       308.08414    
  1152.9727       826.45203       981.06494    
  3221.1824       197.54794       1433.5283    
  1703.4307       709.88129       325.22427    
  1546.0549       206.21996       486.01990    
  1254.6190       826.45203       921.59863    
  1255.1122       197.54794       841.98303    
  479.59088       276.54959       353.00354    
  886.49725       197.54794       1430.3304    
  144.19142       130.46541       1008.3320    
  4394.5176       430.87418       308.08414    
  1423.0570       293.89459       338.13837    
  643.56543       826.25336       1483.4778    
  972.43085       601.18970       308.08408    
  833.87036       197.54794       1061.9270    
  3782.7971       622.92810       1727.9640    
  1807.8933       819.74475       495.30121    
  1557.4872       826.45203       596.98053    
  8189.0415       430.06339       1382.3389    
  739.95538       632.93604       308.08408    
  2153.0764       197.54794       613.51538    
  1985.8019       826.45203       966.41174    
 
CELLS 1      201
     200
       0
       1
       2
       3
       4
       5
       6
       7
       8
       9
      10
      11
      12
      13
      14
      15
      16
      17
      18
      19
      20
      21
      22
      23
      24
      25
      26
      27
      28
      29
      30
      31
      32
      33
      34
      35
      36
      37
      38
      39
      40
      41
      42
      43
      44
      45
      46
      47
      48
      49
      50
      51
      52
      53
      54
      55
      56
      57
      58
      59
      60
      61
      62
      63
      64
      65
      66
      67
      68
      69
      70
      71
      72
      73
      74
      75
      76
      77
      78
      79
      80
      81
      82
      83
      84
      85
      86
      87
      88
      89
      90
      91
      92
      93
      94
      95
      96
      97
      98
      99
     100
     101
     102
     103
     104
     105
     106
     107
     108
     109
     110
     111
     112
     113
     114
     115
     116
     117
     118
     119
     120
     121
     122
     123
     124
     125
     126
     127
     128
     129
     130
     131
     132
     133
     134
     135
     136
     137
     138
     139
     140
     141
     142
     143
     144
     145
     146
     147
     148
     149
     150
     151
     152
     153
     154
     155
     156
     157
     158
     159
     160
     161
     162
     163
     164
     165
     166
     167
     168
     169
     170
     171
     172
     173
     174
     175
     176
     177
     178
     179
     180
     181
     182
     183
     184
     185
     186
     187
     188
     189
     190
     191
     192
     193
     194
     195
     196
     197
     198
     199
CELL_TYPES 1
2
 
POINT_DATA     200
SCALARS objects int 1
LOOKUP_TABLE default
     664
     664
     821
     729
    1028
     796
    1133
     795
    1007
    1257
     822
     796
     663
     664
     806
     795
    1278
     795
     729
     720
     664
     835
     664
     626
    1314
     796
     795
     663
       0
     795
     862
    1283
    1123
     725
     664
     730
    1145
     664
     796
    1139
     643
     664
     664
     824
    1017
    1065
     796
     795
     796
     729
     862
     862
     992
    1387
     796
     664
     875
     991
     796
     868
     796
       0
     646
     729
       0
     992
    1300
     729
    1021
     663
     664
    1255
     730
     663
     796
     664
     796
     663
    1158
     664
     852
     796
     800
     882
     861
     992
     796
     663
     664
    1258
     640
       0
    1123
     664
     664
     760
       0
     768
     735
     795
     861
    1276
     879
     992
     754
     795
     659
     697
     882
     664
       0
     650
     879
     664
     663
     730
     663
     861
     795
     795
     789
     729
     664
     795
     664
     663
     830
     992
     729
     796
     729
    1125
     730
     795
     862
    1308
       0
     663
     731
    1035
     663
     795
     825
     796
     664
     796
     663
     862
    1020
     718
     795
       0
     924
     664
    1123
     795
     663
     795
     664
     732
     663
     796
     852
     730
     844
     796
     654
    1046
     593
     663
     796
     664
     664
     663
     815
     663
     729
     655
    1123
     795
     992
     748
     680
     795
     664
     691
     663
    1706
    1123
     716
     798
     729
     664
    1387
     786
     795
       0
     729
     992
    1258
