# vtk DataFile Version 2.0
moves
ASCII
           
DATASET UNSTRUCTURED_GRID
POINTS      600 float
 -4690.0000       0.0000000       5.0000205    
 -3735.7993      -599.94000       48.616428    
 -4690.0000       0.0000000       5.0000205    
 -4493.7422      -599.94000       183.40454    
 -4690.0000       0.0000000       5.0000205    
 -3712.3083       489.60162       859.91425    
 -4690.0000       0.0000000       5.0000205    
 -2888.5891       215.20724      -849.91406    
 -4690.0000       0.0000000       5.0000205    
 -267.04440      -599.93994      -640.70825    
 -4690.0000       0.0000000       5.0000205    
 -3911.4443       599.94000       474.05643    
 -4690.0000       0.0000000       5.0000205    
 -2420.3418       301.75342      -849.91412    
 -4690.0000       0.0000000       5.0000205    
 -2657.5293       599.94000       36.372482    
 -4690.0000       0.0000000       5.0000205    
 -1878.9905      -576.75037      -849.91400    
 -4690.0000       0.0000000       5.0000205    
 -2299.3171       599.94000       165.07642    
 -4690.0000       0.0000000       5.0000205    
 -2945.3677       459.37686       859.91406    
 -4690.0000       0.0000000       5.0000205    
 -4286.8193       599.94000       176.46233    
 -4690.0000       0.0000000       5.0000205    
 -3122.5254      -599.94000      -23.250275    
 -4690.0000       0.0000000       5.0000205    
 -3588.0688      -599.94000      -480.09354    
 -4690.0000       0.0000000       5.0000205    
 -3215.1191       599.94000       678.57684    
 -4690.0000       0.0000000       5.0000205    
 -4187.0283       599.94000      -483.92923    
 -4690.0000       0.0000000       5.0000205    
 -2216.2805       417.42365       859.91406    
 -4690.0000       0.0000000       5.0000205    
 -4257.7793       599.94000      -566.97229    
 -4690.0000       0.0000000       5.0000205    
 -3348.7461       69.844131      -849.91406    
 -4690.0000       0.0000000       5.0000205    
 -4222.8208      -334.67316      -849.91406    
 -4690.0000       0.0000000       5.0000205    
 -4233.3750      -599.94000       78.480507    
 -4690.0000       0.0000000       5.0000205    
 -3095.9617       554.44708       859.91406    
 -4690.0000       0.0000000       5.0000205    
 -4382.9312      -599.94000       212.41293    
 -4690.0000       0.0000000       5.0000205    
 -3955.7539      -599.93994       841.46576    
 -4690.0000       0.0000000       5.0000205    
  1063.4244       356.64383       811.22974    
 -4690.0000       0.0000000       5.0000205    
 -3494.7183       599.94000       225.58887    
 -4690.0000       0.0000000       5.0000205    
 -3636.0745       599.94000      -262.02982    
 -4690.0000       0.0000000       5.0000205    
 -3909.7930      -599.94000       261.15094    
 -4690.0000       0.0000000       5.0000205    
  1063.4248       165.55281      -45.244186    
 -4690.0000       0.0000000       5.0000205    
 -3582.2437       599.94000      -378.85965    
 -4690.0000       0.0000000       5.0000205    
 -4095.6741       211.47720       859.91406    
 -4690.0000       0.0000000       5.0000205    
 -2464.5471       353.08456       859.91406    
 -4690.0000       0.0000000       5.0000205    
 -2517.2854      -55.697906      -849.91406    
 -4690.0000       0.0000000       5.0000205    
 -3932.1641      -264.24414      -849.91400    
 -4690.0000       0.0000000       5.0000205    
 -4304.5576      -599.94000      -112.93035    
 -4690.0000       0.0000000       5.0000205    
 -3941.2847      -199.03693      -849.91406    
 -4690.0000       0.0000000       5.0000205    
 -2063.5098       564.81403      -849.91406    
 -4690.0000       0.0000000       5.0000205    
 -3952.9785      -599.94000      -19.399784    
 -4690.0000       0.0000000       5.0000205    
 -3890.4827       599.94000       208.67000    
 -4690.0000       0.0000000       5.0000205    
 -2349.9292       433.36414      -849.91406    
 -4690.0000       0.0000000       5.0000205    
 -4470.9941      -534.78534       859.91406    
 -4690.0000       0.0000000       5.0000205    
 -3962.2981      -599.94000      -154.32599    
 -4690.0000       0.0000000       5.0000205    
 -4537.4160      -599.94006       128.10741    
 -4690.0000       0.0000000       5.0000205    
 -3594.2065       404.36371       859.91425    
 -4690.0000       0.0000000       5.0000205    
 -2076.4175      -359.97797      -849.91406    
 -4690.0000       0.0000000       5.0000205    
 -2356.9414      -599.94000      -660.98981    
 -4690.0000       0.0000000       5.0000205    
 -3999.6675       599.94000      -116.71429    
 -4690.0000       0.0000000       5.0000205    
 -3553.7021       599.94006      -100.80467    
 -4690.0000       0.0000000       5.0000205    
 -3842.5347       599.94000       63.416100    
 -4690.0000       0.0000000       5.0000205    
 -3361.1594       165.72194      -849.91406    
 -4690.0000       0.0000000       5.0000205    
 -3556.6006       206.63445       859.91406    
 -4690.0000       0.0000000       5.0000205    
 -3953.5461       7.9385815       859.91406    
 -4690.0000       0.0000000       5.0000205    
 -1954.1166      -599.94000       200.07533    
 -4690.0000       0.0000000       5.0000205    
  1063.4248       153.88721       859.88586    
 -4690.0000       0.0000000       5.0000205    
 -3992.4858       599.94000       82.571526    
 -4690.0000       0.0000000       5.0000205    
 -4055.6169      -599.94000      -47.140270    
 -4690.0000       0.0000000       5.0000205    
 -227.77133      -428.85648       859.91406    
 -4690.0000       0.0000000       5.0000205    
 -344.21252      -599.94000      -557.66895    
 -4690.0000       0.0000000       5.0000205    
 -4442.8687       599.94000       140.41519    
 -4690.0000       0.0000000       5.0000205    
 -1586.0776      -333.64441       859.91406    
 -4690.0000       0.0000000       5.0000205    
 -4042.7888       599.94000      -312.00623    
 -4690.0000       0.0000000       5.0000205    
  1063.4248      -92.184113      -434.84134    
 -4690.0000       0.0000000       5.0000205    
 -2572.1165      -575.46667       859.91406    
 -4690.0000       0.0000000       5.0000205    
 -2908.6536       93.627342      -849.91406    
 -4690.0000       0.0000000       5.0000205    
  1063.4244      -164.14070       385.52118    
 -4690.0000       0.0000000       5.0000205    
 -1042.6051      -599.93994      -237.01686    
 -4690.0000       0.0000000       5.0000205    
 -634.37659       599.94000       782.00867    
 -4690.0000       0.0000000       5.0000205    
 -3349.2571       117.19618      -849.91400    
 -4690.0000       0.0000000       5.0000205    
 -1632.0798      -276.13199      -849.91400    
 -4690.0000       0.0000000       5.0000205    
 -3816.0068      -599.94000       352.12479    
 -4690.0000       0.0000000       5.0000205    
 -4138.2251      -599.94000      -237.06180    
 -4690.0000       0.0000000       5.0000205    
 -2264.5339       599.94000      -294.17151    
 -4690.0000       0.0000000       5.0000205    
 -3190.8223      -159.44499      -849.91406    
 -4690.0000       0.0000000       5.0000205    
 -2823.2705      -599.94000      -181.71696    
 -4690.0000       0.0000000       5.0000205    
 -3714.5925       599.94000       401.67886    
 -4690.0000       0.0000000       5.0000205    
 -4487.4189      -599.94000      -6.3487649    
 -4690.0000       0.0000000       5.0000205    
 -4496.9292       599.94000       487.97528    
 -4690.0000       0.0000000       5.0000205    
 -3231.2256      -599.94000      -47.208294    
 -4690.0000       0.0000000       5.0000205    
 -1790.1801       599.94000      -633.69696    
 -4690.0000       0.0000000       5.0000205    
 -4133.7739      -599.94000      -175.68425    
 -4690.0000       0.0000000       5.0000205    
 -2775.3340       352.39706       859.91406    
 -4690.0000       0.0000000       5.0000205    
 -4380.1733       599.94000       500.45139    
 -4690.0000       0.0000000       5.0000205    
 -4064.3274       599.94000       680.66888    
 -4690.0000       0.0000000       5.0000205    
 -1543.9006      -589.25427       859.91406    
 -4690.0000       0.0000000       5.0000205    
 -3823.8499      -64.487625       859.91406    
 -4690.0000       0.0000000       5.0000205    
 -884.24500      -599.94000       407.40698    
 -4690.0000       0.0000000       5.0000205    
 -4161.0039       599.94000       120.81548    
 -4690.0000       0.0000000       5.0000205    
 -2820.4893      -599.94000       125.29726    
 -4690.0000       0.0000000       5.0000205    
 -4041.5217      -599.94000      -89.286087    
 -4690.0000       0.0000000       5.0000205    
 -2358.5308       599.94000       483.86987    
 -4690.0000       0.0000000       5.0000205    
 -4010.7852      -479.27917       859.91406    
 -4690.0000       0.0000000       5.0000205    
  1063.4244      -96.692642       489.74396    
 -4690.0000       0.0000000       5.0000205    
 -1822.2466       110.79527      -849.91406    
 -4690.0000       0.0000000       5.0000205    
 -4433.8618      -599.93994       403.66446    
 -4690.0000       0.0000000       5.0000205    
 -3345.3496      -599.94000      -617.97839    
 -4690.0000       0.0000000       5.0000205    
 -3228.6797       599.94000      -781.24390    
 -4690.0000       0.0000000       5.0000205    
  1063.4244      -178.89117       524.63904    
 -4690.0000       0.0000000       5.0000205    
 -4482.1069       429.83951      -849.91406    
 -4690.0000       0.0000000       5.0000205    
 -4349.2778       244.84613      -849.91406    
 -4690.0000       0.0000000       5.0000205    
 -3668.4302       599.94000      -372.81009    
 -4690.0000       0.0000000       5.0000205    
 -3254.1855      -83.571274       859.91406    
 -4690.0000       0.0000000       5.0000205    
 -1581.5822       448.71008       859.91406    
 -4690.0000       0.0000000       5.0000205    
 -2133.9426      -494.70456       859.91406    
[...]
POINT_DATA     600
SCALARS objects int 1
LOOKUP_TABLE default
       0
       0
       0
       0
       0
       0
       0
       0
       0
       0
       0
       0
       0
       0
       0
       0
       0
       0
       0
       0
       0
       0
       0
       0
       0
       0
       0
       0
       0
       0
       0
       0
       0
       0
       0
       0
       0
       0
       0
       0
       0
       0
       0
       0
       0
       0
       0
       0
       0
       0
       0
       0
       0
       0
       0
       0
       0
       0
       0
       0
       0
       0
       0
       0
       0
       0
       0
       0
       0
       0
       0
       0
       0
       0
       0
       0
       0
       0
       0
       0
       0
       0
       0
       0
       0
       0
       0
       0
       0
       0
       0
       0
       0
       0
       0
       0
       0
       0
       0
       0
       0
       0
       0
       0
       0
       0
       0
       0
       0
       0
       0
       0
       0
       0
       0
       0
       0
       0
       0
       0
       0
       0
       0
       0
       0
       0
       0
       0
       0
       0
       0
       0
       0
       0
       0
       0
       0
       0
       0
       0
       0
       0
       0
       0
       0
       0
       0
       0
       0
       0
       0
       0
       0
       0
       0
       0
       0
       0
       0
       0
       0
       0
       0
       0
       0
       0
       0
       0
       0
       0
       0
       0
       0
       0
       0
       0
       0
       0
       0
       0
       0
       0
       0
       0
       0
       0
       0
       0
       0
       0
       0
       0
       0
       0
       0
       0
       0
       0
       0
       0
       0
       0
       0
       0
       0
       0
       0
       0
       0
       0
       0
       0
       0
       0
       0
       0
       0
       0
       0
       0
       0
       0
       0
       0
       0
       0
       0
       0
       0
       0
       0
       0
       0
       0
       0
       0
       0
       0
       0
       0
       0
       0
       0
       0
       0
       0
       0
       0
       0
       0
       0
       0
       0
       0
       0
       0
       0
       0
       0
       0
       0
       0
       0
       0
       0
       0
       0
       0
       0
       0
       0
       0
       0
       0
       0
       0
       0
       0
       0
       0
       0
       0
       0
       0
       0
       0
       0
       0
       0
       0
       0
       0
       0
       0
       0
       0
       0
       0
       0
       0
       0
       0
       0
       0
       0
       0
       0
       0
       0
       0
       0
       0
       0
       0
       0
       0
       0
       0
       0
       0
       0
       0
       0
       0
       0
       0
       0
       0
       0
       0
       0
       0
       0
       0
       0
       0
       0
       0
       0
       0
       0
       0
       0
       0
       0
       0
       0
       0
       0
       0
       0
       0
       0
       0
       0
       0
       0
       0
       0
       0
       0
       0
       0
       0
       0
       0
       0
       0
       0
       0
       0
       0
       0
       0
       0
       0
       0
       0
       0
       0
       0
       0
       0
       0
       0
       0
       0
       0
       0
       0
       0
       0
       0
       0
       0
       0
       0
       0
       0
       0
     664
     664
     821
     729
    1028
     796
    1133
     795
    1007
    1257
     822
     796
     663
     664
     806
     795
    1278
     795
     729
     720
     664
     835
     664
     626
    1314
     796
     795
     663
       0
     795
     862
    1283
    1123
     725
     664
     730
    1145
     664
     796
    1139
     643
     664
     664
     824
    1017
    1065
     796
     795
     796
     729
     862
     862
     992
    1387
     796
     664
     875
     991
     796
     868
     796
       0
     646
     729
       0
     992
    1300
     729
    1021
     663
     664
    1255
     730
     663
     796
     664
     796
     663
    1158
     664
     852
     796
     800
     882
     861
     992
     796
     663
     664
    1258
     640
       0
    1123
     664
     664
     760
       0
     768
     735
     795
     861
    1276
     879
     992
     754
     795
     659
     697
     882
     664
       0
     650
     879
     664
     663
     730
     663
     861
     795
     795
     789
     729
     664
     795
     664
     663
     830
     992
     729
     796
     729
    1125
     730
     795
     862
    1308
       0
     663
     731
    1035
     663
     795
     825
     796
     664
     796
     663
     862
    1020
     718
     795
       0
     924
     664
    1123
     795
     663
     795
     664
     732
     663
     796
     852
     730
     844
     796
     654
    1046
     593
     663
     796
     664
     664
     663
     815
     663
     729
     655
    1123
     795
     992
     748
     680
     795
     664
     691
     663
    1706
    1123
     716
     798
     729
     664
    1387
     786
     795
       0
     729
     992
    1258
