# vtk DataFile Version 2.0
moves in quantised space
ASCII
           
DATASET UNSTRUCTURED_GRID
POINTS      600 float
  16.347168       512.00000       1023.9999    
  1371.7817       2.1287537       1076.1296    
  16.347168       512.00000       1023.9999    
  295.12988       2.1287537       1237.2264    
  16.347168       512.00000       1023.9999    
  1405.1504       928.09790       2045.7810    
  16.347168       512.00000       1023.9999    
  2575.2373       694.89825       2.2189941    
  16.347168       512.00000       1023.9999    
  6299.1206       2.1288147       252.25879    
  16.347168       512.00000       1023.9999    
  1122.2793       1021.8712       1584.6094    
  16.347168       512.00000       1023.9999    
  3240.3789       768.45129       2.2189331    
  16.347168       512.00000       1023.9999    
  2903.4558       1021.8712       1061.4958    
  16.347168       512.00000       1023.9999    
  4009.3640       21.836945       2.2190552    
  16.347168       512.00000       1023.9999    
  3412.2935       1021.8712       1215.3209    
  16.347168       512.00000       1023.9999    
  2494.5835       902.41077       2045.7808    
  16.347168       512.00000       1023.9999    
  589.06250       1021.8712       1228.9292    
  16.347168       512.00000       1023.9999    
  2242.9326       2.1287537       990.23560    
  16.347168       512.00000       1023.9999    
  1581.6318       2.1287537       444.22314    
  16.347168       512.00000       1023.9999    
  2111.4038       1021.8712       1829.0492    
  16.347168       512.00000       1023.9999    
  730.81445       1021.8712       439.63879    
  16.347168       512.00000       1023.9999    
  3530.2461       866.75598       2045.7808    
  16.347168       512.00000       1023.9999    
  630.31348       1021.8712       340.38690    
  16.347168       512.00000       1023.9999    
  1921.5879       571.35846       2.2189941    
  16.347168       512.00000       1023.9999    
  679.97168       227.57120       2.2189941    
  16.347168       512.00000       1023.9999    
  664.97949       2.1287537       1111.8228    
  16.347168       512.00000       1023.9999    
  2280.6660       983.20813       2045.7808    
  16.347168       512.00000       1023.9999    
  452.53613       2.1287537       1271.8969    
  16.347168       512.00000       1023.9999    
  1059.3379       2.1288147       2023.7317    
  16.347168       512.00000       1023.9999    
  8189.0410       815.10101       1987.5940    
  16.347168       512.00000       1023.9999    
  1714.2354       1021.8712       1287.6445    
  16.347168       512.00000       1023.9999    
  1513.4399       1021.8712       704.84973    
  16.347168       512.00000       1023.9999    
  1124.6250       2.1287537       1330.1478    
  16.347168       512.00000       1023.9999    
  8189.0415       652.69843       963.94879    
  16.347168       512.00000       1023.9999    
  1589.9062       1021.8712       565.21643    
  16.347168       512.00000       1023.9999    
  860.58252       691.72821       2045.7808    
  16.347168       512.00000       1023.9999    
  3177.5854       812.07611       2045.7808    
  16.347168       512.00000       1023.9999    
  3102.6711       464.66400       2.2189941    
  16.347168       512.00000       1023.9999    
  1092.8472       287.42673       2.2190552    
  16.347168       512.00000       1023.9999    
  563.86523       2.1287537       883.05127    
  16.347168       512.00000       1023.9999    
  1079.8916       342.84442       2.2189941    
  16.347168       512.00000       1023.9999    
  3747.2559       992.01868       2.2189941    
  16.347168       512.00000       1023.9999    
  1063.2803       2.1287537       994.83765    
  16.347168       512.00000       1023.9999    
  1152.0552       1021.8712       1267.4233    
  16.347168       512.00000       1023.9999    
  3340.3994       880.30334       2.2189941    
  16.347168       512.00000       1023.9999    
  327.44336       57.501770       2045.7808    
  16.347168       512.00000       1023.9999    
  1050.0420       2.1287537       833.57581    
  16.347168       512.00000       1023.9999    
  233.09180       2.1287231       1171.1361    
  16.347168       512.00000       1023.9999    
  1572.9131       855.65674       2045.7810    
  16.347168       512.00000       1023.9999    
  3728.9207       206.06540       2.2189941    
  16.347168       512.00000       1023.9999    
  3330.4385       2.1287537       228.01855    
  16.347168       512.00000       1023.9999    
  996.95898       1021.8712       878.52875    
  16.347168       512.00000       1023.9999    
  1630.4492       1021.8713       897.54370    
  16.347168       512.00000       1023.9999    
  1220.1650       1021.8712       1093.8180    
  16.347168       512.00000       1023.9999    
  1903.9546       652.84216       2.2189941    
  16.347168       512.00000       1023.9999    
  1626.3320       687.61249       2045.7808    
  16.347168       512.00000       1023.9999    
  1062.4741       518.74677       2045.7808    
  16.347168       512.00000       1023.9999    
  3902.6479       2.1287537       1257.1511    
  16.347168       512.00000       1023.9999    
  8189.0415       642.78418       2045.7471    
  16.347168       512.00000       1023.9999    
  1007.1606       1021.8712       1116.7123    
  16.347168       512.00000       1023.9999    
  917.48340       2.1287537       961.68262    
  16.347168       512.00000       1023.9999    
  6354.9077       147.52759       2045.7808    
  16.347168       512.00000       1023.9999    
  6189.5039       2.1287537       351.50616    
  16.347168       512.00000       1023.9999    
  367.39551       1021.8712       1185.8462    
  16.347168       512.00000       1023.9999    
  4425.4443       228.44550       2045.7808    
  16.347168       512.00000       1023.9999    
  935.70557       1021.8712       645.11865    
  16.347168       512.00000       1023.9999    
  8189.0415       433.65546       498.30792    
  16.347168       512.00000       1023.9999    
  3024.7842       22.927917       2045.7808    
  16.347168       512.00000       1023.9999    
  2546.7358       591.57111       2.2189941    
  16.347168       512.00000       1023.9999    
  8189.0410       372.50168       1478.7933    
  16.347168       512.00000       1023.9999    
  5197.4429       2.1288147       734.74487    
  16.347168       512.00000       1023.9999    
  5777.3281       1021.8712       1952.6694    
  16.347168       512.00000       1023.9999    
  1920.8618       611.60156       2.2190552    
  16.347168       512.00000       1023.9999    
  4360.0986       277.32361       2.2190552    
  16.347168       512.00000       1023.9999    
  1257.8477       2.1287537       1438.8784    
  16.347168       512.00000       1023.9999    
  800.13916       2.1287537       734.69116    
  16.347168       512.00000       1023.9999    
  3461.7026       1021.8712       666.43445    
  16.347168       512.00000       1023.9999    
  2145.9175       376.49243       2.2189941    
  16.347168       512.00000       1023.9999    
  2668.0217       2.1287537       800.83850    
  16.347168       512.00000       1023.9999    
  1401.9058       1021.8712       1498.1047    
  16.347168       512.00000       1023.9999    
  304.11230       2.1287537       1010.4360    
  16.347168       512.00000       1023.9999    
  290.60303       1021.8712       1601.2450    
  16.347168       512.00000       1023.9999    
  2088.5249       2.1287537       961.60132    
  16.347168       512.00000       1023.9999    
  4135.5186       1021.8712       260.63855    
  16.347168       512.00000       1023.9999    
  806.46191       2.1287537       808.04871    
  16.347168       512.00000       1023.9999    
  2736.1152       811.49182       2045.7808    
  16.347168       512.00000       1023.9999    
  456.45361       1021.8712       1616.1562    
  16.347168       512.00000       1023.9999    
  905.11035       1021.8712       1831.5496    
  16.347168       512.00000       1023.9999    
  4485.3564       11.210236       2045.7808    
  16.347168       512.00000       1023.9999    
  1246.7065       457.19388       2045.7808    
  16.347168       512.00000       1023.9999    
  5422.3921       2.1287537       1504.9509    
  16.347168       512.00000       1023.9999    
  767.78223       1021.8712       1162.4209    
  16.347168       512.00000       1023.9999    
  2671.9724       2.1287537       1167.7775    
  16.347168       512.00000       1023.9999    
  937.50537       2.1287537       911.31055    
  16.347168       512.00000       1023.9999    
  3328.1809       1021.8712       1596.3383    
  16.347168       512.00000       1023.9999    
  981.16650       104.67484       2045.7808    
  16.347168       512.00000       1023.9999    
  8189.0410       429.82379       1603.3589    
  16.347168       512.00000       1023.9999    
  4089.9683       606.16162       2.2189941    
  16.347168       512.00000       1023.9999    
  380.18945       2.1288147       1500.4779    
  16.347168       512.00000       1023.9999    
  1926.4126       2.1287537       279.42517    
  16.347168       512.00000       1023.9999    
  2092.1411       1021.8712       84.292603    
  16.347168       512.00000       1023.9999    
  8189.0410       359.96570       1645.0649    
  16.347168       512.00000       1023.9999    
  311.65771       877.30786       2.2189941    
  16.347168       512.00000       1023.9999    
  500.34033       720.08746       2.2189941    
  16.347168       512.00000       1023.9999    
  1467.4790       1021.8712       572.44678    
  16.347168       512.00000       1023.9999    
  2055.9102       440.97525       2045.7808    
  16.347168       512.00000       1023.9999    
  4431.8301       893.34540       2045.7808    
  16.347168       512.00000       1023.9999    
[...]
POINT_DATA     600
SCALARS objects int 1
LOOKUP_TABLE default
       0
       0
       0
       0
       0
       0
       0
       0
       0
       0
       0
       0
       0
       0
       0
       0
       0
       0
       0
       0
       0
       0
       0
       0
       0
       0
       0
       0
       0
       0
       0
       0
       0
       0
       0
       0
       0
       0
       0
       0
       0
       0
       0
       0
       0
       0
       0
       0
       0
       0
       0
       0
       0
       0
       0
       0
       0
       0
       0
       0
       0
       0
       0
       0
       0
       0
       0
       0
       0
       0
       0
       0
       0
       0
       0
       0
       0
       0
       0
       0
       0
       0
       0
       0
       0
       0
       0
       0
       0
       0
       0
       0
       0
       0
       0
       0
       0
       0
       0
       0
       0
       0
       0
       0
       0
       0
       0
       0
       0
       0
       0
       0
       0
       0
       0
       0
       0
       0
       0
       0
       0
       0
       0
       0
       0
       0
       0
       0
       0
       0
       0
       0
       0
       0
       0
       0
       0
       0
       0
       0
       0
       0
       0
       0
       0
       0
       0
       0
       0
       0
       0
       0
       0
       0
       0
       0
       0
       0
       0
       0
       0
       0
       0
       0
       0
       0
       0
       0
       0
       0
       0
       0
       0
       0
       0
       0
       0
       0
       0
       0
       0
       0
       0
       0
       0
       0
       0
       0
       0
       0
       0
       0
       0
       0
       0
       0
       0
       0
       0
       0
       0
       0
       0
       0
       0
       0
       0
       0
       0
       0
       0
       0
       0
       0
       0
       0
       0
       0
       0
       0
       0
       0
       0
       0
       0
       0
       0
       0
       0
       0
       0
       0
       0
       0
       0
       0
       0
       0
       0
       0
       0
       0
       0
       0
       0
       0
       0
       0
       0
       0
       0
       0
       0
       0
       0
       0
       0
       0
       0
       0
       0
       0
       0
       0
       0
       0
       0
       0
       0
       0
       0
       0
       0
       0
       0
       0
       0
       0
       0
       0
       0
       0
       0
       0
       0
       0
       0
       0
       0
       0
       0
       0
       0
       0
       0
       0
       0
       0
       0
       0
       0
       0
       0
       0
       0
       0
       0
       0
       0
       0
       0
       0
       0
       0
       0
       0
       0
       0
       0
       0
       0
       0
       0
       0
       0
       0
       0
       0
       0
       0
       0
       0
       0
       0
       0
       0
       0
       0
       0
       0
       0
       0
       0
       0
       0
       0
       0
       0
       0
       0
       0
       0
       0
       0
       0
       0
       0
       0
       0
       0
       0
       0
       0
       0
       0
       0
       0
       0
       0
       0
       0
       0
       0
       0
       0
       0
       0
       0
       0
       0
       0
       0
       0
       0
       0
       0
       0
       0
       0
       0
       0
       0
       0
       0
       0
       0
       0
       0
       0
       0
     664
     664
     821
     729
    1028
     796
    1133
     795
    1007
    1257
     822
     796
     663
     664
     806
     795
    1278
     795
     729
     720
     664
     835
     664
     626
    1314
     796
     795
     663
       0
     795
     862
    1283
    1123
     725
     664
     730
    1145
     664
     796
    1139
     643
     664
     664
     824
    1017
    1065
     796
     795
     796
     729
     862
     862
     992
    1387
     796
     664
     875
     991
     796
     868
     796
       0
     646
     729
       0
     992
    1300
     729
    1021
     663
     664
    1255
     730
     663
     796
     664
     796
     663
    1158
     664
     852
     796
     800
     882
     861
     992
     796
     663
     664
    1258
     640
       0
    1123
     664
     664
     760
       0
     768
     735
     795
     861
    1276
     879
     992
     754
     795
     659
     697
     882
     664
       0
     650
     879
     664
     663
     730
     663
     861
     795
     795
     789
     729
     664
     795
     664
     663
     830
     992
     729
     796
     729
    1125
     730
     795
     862
    1308
       0
     663
     731
    1035
     663
     795
     825
     796
     664
     796
     663
     862
    1020
     718
     795
       0
     924
     664
    1123
     795
     663
     795
     664
     732
     663
     796
     852
     730
     844
     796
     654
    1046
     593
     663
     796
     664
     664
     663
     815
     663
     729
     655
    1123
     795
     992
     748
     680
     795
     664
     691
     663
    1706
    1123
     716
     798
     729
     664
    1387
     786
     795
       0
     729
     992
    1258
